 Gaussian 09, Revision D.01,
 Gaussian 09:  ES64L-G09RevD.01 24-Apr-2013

 ------------------------------------------------
 #N wB97XD/6-31+G(d,p) OPT FREQ Geom=Connectivity
 ------------------------------------------------

 --------
 C8H16O24
 --------
 Symbolic Z-matrix:
 Charge =  0 Multiplicity = 1

 SCF Done:  E(RwB97XD) =  -2119.70028785     A.U. after   12 cycles
 SCF Done:  E(RwB97XD) =  -2119.70027424     A.U. after    6 cycles
 SCF Done:  E(RwB97XD) =  -2119.70028813     A.U. after    6 cycles
 SCF Done:  E(RwB97XD) =  -2119.70028826     A.U. after    5 cycles
 SCF Done:  E(RwB97XD) =  -2119.70028776     A.U. after    6 cycles
 SCF Done:  E(RwB97XD) =  -2119.69560223     A.U. after   10 cycles
 SCF Done:  E(RwB97XD) =  -2119.70028828     A.U. after    2 cycles
 SCF Done:  E(RwB97XD) =  -2119.70027137     A.U. after    7 cycles
 SCF Done:  E(RwB97XD) =  -2119.70027374     A.U. after    7 cycles
 SCF Done:  E(RwB97XD) =  -2119.70027443     A.U. after    6 cycles
 SCF Done:  E(RwB97XD) =  -2119.70028794     A.U. after    7 cycles
 SCF Done:  E(RwB97XD) =  -2119.70028824     A.U. after    6 cycles
 SCF Done:  E(RwB97XD) =  -2119.70028766     A.U. after    6 cycles
 SCF Done:  E(RwB97XD) =  -2119.70028835     A.U. after    6 cycles
 SCF Done:  E(RwB97XD) =  -2119.70028899     A.U. after    6 cycles
 SCF Done:  E(RwB97XD) =  -2119.69945519     A.U. after    9 cycles
 SCF Done:  E(RwB97XD) =  -2119.70028851     A.U. after    6 cycles
 Optimization completed.
    -- Stationary point found.
 Normal termination of Gaussian 09 at Fri Jun 21 13:17:50 2019.

 ----------------------------------------------------------------------
 #N Geom=AllCheck Guess=TCheck SCRF=Check GenChk RwB97XD/6-31+G(d,p) Fr
 eq
 ----------------------------------------------------------------------

 Structure from the checkpoint file:  "/tmp/bnp.229380.sequoia/Gau-8398.chk"
 --------
 C8H16O24
 --------
 Charge =  0 Multiplicity = 1

                         Standard orientation:
 ---------------------------------------------------------------------
 Center     Atomic      Atomic             Coordinates (Angstroms)
 Number     Number       Type             X           Y           Z
 ---------------------------------------------------------------------
      1          6           0        1.303179    7.719385    0.000000
      2          8           0        0.116536    7.193407    0.000000
      3          1           0       -0.587287    7.901737    0.000000
      4          8           0        2.255710    6.831666    0.000000
      5          1           0        3.143994    7.276291    0.000000
      6          8           0        1.517057    8.951654    0.000000
      7          6           0        7.679962    6.671237    0.000000
      8          8           0        6.510517    6.094156    0.000000
      9          1           0        5.802591    6.790500    0.000000
     10          8           0        8.659672    5.777523    0.000000
     11          1           0        9.494691    6.262426    0.000000
     12          8           0        7.891280    7.882071    0.000000
     13          6           0       -1.517057   10.273132    0.000000
     14          8           0       -2.496032   11.167689    0.000000
     15          1           0       -3.331423   10.683414    0.000000
     16          8           0       -0.347107   10.849328    0.000000
     17          1           0        0.360131   10.152219    0.000000
     18          8           0       -1.729170    9.062520    0.000000
     19          6           0        4.858186    9.222983    0.000000
     20          8           0        3.905351   10.110406    0.000000
     21          1           0        3.017154    9.665373    0.000000
     22          8           0        6.044638    9.749588    0.000000
     23          1           0        6.748800    9.041468    0.000000
     24          8           0        4.644728    7.990744    0.000000
     25          8           0        1.729170   -9.062520    0.000000
     26          6           0        1.517057  -10.273132    0.000000
     27          8           0        0.347107  -10.849328    0.000000
     28          1           0       -0.360131  -10.152219    0.000000
     29          8           0        2.496032  -11.167689    0.000000
     30          1           0        3.331423  -10.683414    0.000000
     31          8           0       -1.517057   -8.951654    0.000000
     32          6           0       -1.303179   -7.719385    0.000000
     33          8           0       -2.255710   -6.831666    0.000000
     34          1           0       -3.143994   -7.276291    0.000000
     35          8           0       -0.116536   -7.193407    0.000000
     36          1           0        0.587287   -7.901737    0.000000
     37          8           0       -4.644728   -7.990744    0.000000
     38          6           0       -4.858186   -9.222983    0.000000
     39          8           0       -6.044638   -9.749588    0.000000
     40          1           0       -6.748800   -9.041468    0.000000
     41          8           0       -3.905351  -10.110406    0.000000
     42          1           0       -3.017154   -9.665373    0.000000
     43          8           0       -7.891280   -7.882071    0.000000
     44          6           0       -7.679962   -6.671237    0.000000
     45          8           0       -8.659672   -5.777523    0.000000
     46          1           0       -9.494691   -6.262426    0.000000
     47          8           0       -6.510517   -6.094156    0.000000
     48          1           0       -5.802591   -6.790500    0.000000
 ---------------------------------------------------------------------

 SCF Done:  E(RwB97XD) =  -2119.70028851     A.U. after    1 cycles

 Unable to determine electronic state:  an orbital has unidentified symmetry.
 Alpha  occ. eigenvalues --  -19.36377 -19.36377 -19.36361 -19.36361 -19.34821
 Alpha  occ. eigenvalues --  -19.34821 -19.34807 -19.34807 -19.34754 -19.34754
 Alpha  occ. eigenvalues --  -19.34744 -19.34744 -19.34530 -19.34530 -19.34511
 Alpha  occ. eigenvalues --  -19.34511 -19.31821 -19.31821 -19.31812 -19.31812
 Alpha  occ. eigenvalues --  -19.30753 -19.30753 -19.30733 -19.30733 -10.52554
 Alpha  occ. eigenvalues --  -10.52554 -10.52542 -10.52542 -10.52181 -10.52181
 Alpha  occ. eigenvalues --  -10.52163 -10.52163  -1.29417  -1.29417  -1.29218
 Alpha  occ. eigenvalues --   -1.29218  -1.28866  -1.28866  -1.28498  -1.28498
 Alpha  occ. eigenvalues --   -1.19559  -1.19559  -1.19515  -1.19515  -1.19023
 Alpha  occ. eigenvalues --   -1.19023  -1.18777  -1.18777  -1.16312  -1.16312
 Alpha  occ. eigenvalues --   -1.15852  -1.15852  -1.15417  -1.15417  -1.15200
 Alpha  occ. eigenvalues --   -1.15200  -0.80828  -0.80828  -0.80259  -0.80259
 Alpha  occ. eigenvalues --   -0.79372  -0.79372  -0.78660  -0.78660  -0.69241
 Alpha  occ. eigenvalues --   -0.69241  -0.69047  -0.69047  -0.68252  -0.68252
 Alpha  occ. eigenvalues --   -0.66493  -0.66493  -0.64926  -0.64926  -0.63357
 Alpha  occ. eigenvalues --   -0.63357  -0.62666  -0.62666  -0.62650  -0.62650
 Alpha  occ. eigenvalues --   -0.61508  -0.61508  -0.61212  -0.61212  -0.60886
 Alpha  occ. eigenvalues --   -0.60886  -0.60664  -0.60664  -0.59728  -0.59728
 Alpha  occ. eigenvalues --   -0.57843  -0.57843  -0.56293  -0.56293  -0.54897
 Alpha  occ. eigenvalues --   -0.54897  -0.52991  -0.52991  -0.51569  -0.51569
 Alpha  occ. eigenvalues --   -0.50102  -0.50102  -0.49659  -0.49659  -0.46688
 Alpha  occ. eigenvalues --   -0.46688  -0.46626  -0.46626  -0.46024  -0.46024
 Alpha  occ. eigenvalues --   -0.45879  -0.45879  -0.44792  -0.44792  -0.44189
 Alpha  occ. eigenvalues --   -0.44189  -0.43597  -0.43597  -0.43570  -0.43570
 Alpha  occ. eigenvalues --   -0.43331  -0.43331  -0.42887  -0.42887  -0.41965
 Alpha  occ. eigenvalues --   -0.41965  -0.41683  -0.41683
 Alpha virt. eigenvalues --    0.05000   0.05000   0.05366   0.05366   0.06461
 Alpha virt. eigenvalues --    0.06461   0.06784   0.06784   0.07367   0.07367
 Alpha virt. eigenvalues --    0.08195   0.08195   0.08577   0.08577   0.08982

 Mulliken charges:
               1
     1  C    0.808775
     2  O   -0.494223
     3  H    0.465848
     4  O   -0.489888
     5  H    0.466526
     6  O   -0.793967
     7  C    0.728310
     8  O   -0.501039
     9  H    0.474383
    10  O   -0.457866
    11  H    0.394533
    12  O   -0.601104
    13  C    0.728307
    14  O   -0.458060
    15  H    0.394605
    16  O   -0.501452
    17  H    0.474449
    18  O   -0.600731
    19  C    0.808738
    20  O   -0.490391
    21  H    0.466724
    22  O   -0.494874
    23  H    0.465914
    24  O   -0.793521
    25  O   -0.600731
    26  C    0.728307
    27  O   -0.501452
    28  H    0.474449
    29  O   -0.458060
    30  H    0.394605
    31  O   -0.793967
    32  C    0.808775
    33  O   -0.489888
    34  H    0.466526
    35  O   -0.494223
    36  H    0.465848
    37  O   -0.793521
    38  C    0.808738
    39  O   -0.494874
    40  H    0.465914
    41  O   -0.490391
    42  H    0.466724
    43  O   -0.601104
    44  C    0.728310
    45  O   -0.457866
    46  H    0.394533
    47  O   -0.501039
    48  H    0.474383
 Sum of Mulliken charges =   0.00000

 Dipole moment (field-independent basis, Debye):
    X=              0.0000    Y=              0.0000    Z=              0.0000  Tot=              0.0000
 Quadrupole moment (field-independent basis, Debye-Ang):
   XX=           -112.7086   YY=           -220.2801   ZZ=           -178.2163
   XY=            -22.2314   XZ=              0.0000   YZ=              0.0000

  Exact polarizability: 257.190 -19.813 218.884   0.000   0.000 117.972
 Approx polarizability: 231.738   0.963 244.297   0.000   0.000 132.614

 ******    5 imaginary frequencies (negative Signs) ******

                      1                      2                      3
                     AU                     BG                     AU
 Frequencies --    -16.2577               -15.9963                -4.1419
 Red. masses --     11.1904                11.4098                 9.8851
 Frc consts  --      0.0017                 0.0017                 0.0001
 IR Inten    --      0.0005                 0.0000                 0.0002

                      4                      5                      6
                     AU                     BG                     AG
 Frequencies --     -3.3897                -3.3273                 0.4390
 Red. masses --     11.8077                11.8195                10.3333
 Frc consts  --      0.0001                 0.0001                 0.0000
 IR Inten    --      0.0481                 0.0000                 0.0000

                      7                      8                      9
                     AG                     BU                     BG
 Frequencies --      7.3584                 8.0692                17.7094
 Red. masses --     10.0100                 9.9502                 7.8828
 Frc consts  --      0.0003                 0.0004                 0.0015
 IR Inten    --      0.0000                 0.0000                 0.0000

                     10                     11                     12
                     AU                     BG                     AU
 Frequencies --     17.7311                36.7864                36.8123
 Red. masses --      7.8837                10.8356                10.9402
 Frc consts  --      0.0015                 0.0086                 0.0087
 IR Inten    --      1.8567                 0.0000                 0.0000

                     13                     14                     15
                     BU                     AG                     AU
 Frequencies --     54.0788                54.0943                56.2290
 Red. masses --      9.8844                 9.8851                 7.7285
 Frc consts  --      0.0170                 0.0170                 0.0144
 IR Inten    --      0.2949                 0.0000                 0.0000

                     16                     17                     18
                     BG                     AG                     BU
 Frequencies --     56.2313                67.3884                67.3895
 Red. masses --      7.7239                10.5429                10.5424
 Frc consts  --      0.0144                 0.0282                 0.0282
 IR Inten    --      0.0000                 0.0000                 0.0000

                     19                     20                     21
                     BG                     AU                     BG
 Frequencies --     68.4092                68.4123                82.5120
 Red. masses --     13.7530                13.7505                 7.8127
 Frc consts  --      0.0379                 0.0379                 0.0313
 IR Inten    --      0.0000                 0.0104                 0.0000

                     22                     23                     24
                     AU                     BG                     AU
 Frequencies --     82.5214               120.1572               120.1607
 Red. masses --      7.8137                12.1601                12.1604
 Frc consts  --      0.0314                 0.1034                 0.1034
 IR Inten    --      2.6665                 0.0000                 0.0000

                     25                     26                     27
                     BG                     AU                     BG
 Frequencies --    130.0913               130.0937               133.3658
 Red. masses --     11.0031                11.0156                12.2601
 Frc consts  --      0.1097                 0.1098                 0.1285
 IR Inten    --      0.0000                 0.0001                 0.0000

                     28                     29                     30
                     AU                     AG                     BU
 Frequencies --    133.3684               150.3291               150.3335
 Red. masses --     12.2606                 8.3784                 8.3770
 Frc consts  --      0.1285                 0.1116                 0.1115
 IR Inten    --      1.2089                 0.0000                 0.0013

                     31                     32                     33
                     AG                     BU                     AG
 Frequencies --    175.5450               175.5839               178.7068
 Red. masses --      8.6378                 8.6414                10.2875
 Frc consts  --      0.1568                 0.1570                 0.1936
 IR Inten    --      0.0000                25.8372                 0.0000

                     34                     35                     36
                     BU                     AG                     BU
 Frequencies --    178.7087               193.7946               193.8103
 Red. masses --     10.2864                 8.8494                 8.8489
 Frc consts  --      0.1936                 0.1958                 0.1958
 IR Inten    --      0.0305                 0.0000                12.8199

                     37                     38                     39
                     BU                     AG                     BU
 Frequencies --    216.9716               216.9762               259.2392
 Red. masses --      8.7427                 8.7424                 9.4135
 Frc consts  --      0.2425                 0.2425                 0.3727
 IR Inten    --      0.0014                 0.0000                 0.1515

                     40                     41                     42
                     AG                     AG                     BU
 Frequencies --    259.2477               260.4712               260.6955
 Red. masses --      9.4074                 7.5665                 7.5571
 Frc consts  --      0.3725                 0.3025                 0.3026
 IR Inten    --      0.0000                 0.0000               229.7310

                     43                     44                     45
                     AG                     BU                     AU
 Frequencies --    585.3661               585.4213               587.1567
 Red. masses --      5.0349                 5.0366                 1.1094
 Frc consts  --      1.0165                 1.0170                 0.2253
 IR Inten    --      0.0000               202.0761                 6.9303

                     46                     47                     48
                     BG                     BG                     BU
 Frequencies --    587.2168               587.2965               587.3445
 Red. masses --      1.1095                 1.1095                 5.1179
 Frc consts  --      0.2254                 0.2255                 1.0402
 IR Inten    --      0.0000                 0.0000                 0.0021

                     49                     50                     51
                     AG                     AU                     BU
 Frequencies --    587.3665               587.4614               630.5967
 Red. masses --      5.1190                 1.1095                 5.8404
 Frc consts  --      1.0405                 0.2256                 1.3683
 IR Inten    --      0.0000               413.2160                 0.0038

                     52                     53                     54
                     AG                     AG                     BU
 Frequencies --    630.6109               649.9139               649.9477
 Red. masses --      5.8409                 5.8814                 5.8837
 Frc consts  --      1.3685                 1.4637                 1.4644
 IR Inten    --      0.0000                 0.0000               137.4364

                     55                     56                     57
                     BU                     AG                     BU
 Frequencies --    650.0800               650.1035               663.3038
 Red. masses --      6.0619                 6.0652                 6.5160
 Frc consts  --      1.5094                 1.5103                 1.6891
 IR Inten    --     10.6590                 0.0000               118.8652

                     58                     59                     60
                     AG                     BU                     AG
 Frequencies --    663.4094               677.5013               677.5036
 Red. masses --      6.5173                 7.3029                 7.3027
 Frc consts  --      1.6900                 1.9750                 1.9750
 IR Inten    --      0.0000                 0.0014                 0.0000

                     61                     62                     63
                     AG                     BU                     AU
 Frequencies --    690.9570               691.0660               807.1039
 Red. masses --      8.4133                 8.4215                 9.4269
 Frc consts  --      2.3666                 2.3696                 3.6181
 IR Inten    --      0.0000               259.0793                 7.7884

                     64                     65                     66
                     BG                     BG                     AU
 Frequencies --    807.1066               807.1563               807.1702
 Red. masses --      9.4165                 9.3845                 9.3680
 Frc consts  --      3.6141                 3.6023                 3.5960
 IR Inten    --      0.0000                 0.0000                49.3851

                     67                     68                     69
                     BG                     AU                     BG
 Frequencies --    811.2164               811.2174               814.1633
 Red. masses --     10.4574                10.4602                10.0565
 Frc consts  --      4.0546                 4.0557                 3.9275
 IR Inten    --      0.0000                 0.0004                 0.0000

                     70                     71                     72
                     AU                     AU                     BG
 Frequencies --    814.1990               872.7226               872.7226
 Red. masses --     10.0348                 1.0677                 1.0677
 Frc consts  --      3.9194                 0.4791                 0.4791
 IR Inten    --     86.8053                 0.0002                 0.0000

                     73                     74                     75
                     BG                     AU                     AU
 Frequencies --    916.1312               916.1659               932.4339
 Red. masses --      1.0649                 1.0649                 1.0735
 Frc consts  --      0.5266                 0.5266                 0.5499
 IR Inten    --      0.0000               123.3269                 1.1393

                     76                     77                     78
                     BG                     BG                     AU
 Frequencies --    932.4350               935.7340               935.7349
 Red. masses --      1.0735                 1.0648                 1.0648
 Frc consts  --      0.5499                 0.5493                 0.5493
 IR Inten    --      0.0000                 0.0000                 0.0005

                     79                     80                     81
                     AU                     BG                     BG
 Frequencies --    983.4460               983.4530              1002.0340
 Red. masses --      1.0552                 1.0553                 1.0616
 Frc consts  --      0.6013                 0.6013                 0.6280
 IR Inten    --      0.1233                 0.0000                 0.0000

                     82                     83                     84
                     AU                     BU                     AG
 Frequencies --   1002.4469              1060.3605              1060.3615
 Red. masses --      1.0619                 6.7982                 6.7928
 Frc consts  --      0.6287                 4.5035                 4.5000
 IR Inten    --   1229.7129                10.6357                 0.0000

                     85                     86                     87
                     BU                     AG                     BU
 Frequencies --   1060.4064              1060.4086              1088.7954
 Red. masses --      6.8102                 6.8151                 9.3002
 Frc consts  --      4.5118                 4.5151                 6.4958
 IR Inten    --     28.5425                 0.0000                 5.7943

                     88                     89                     90
                     AG                     BU                     AG
 Frequencies --   1088.8010              1096.4112              1096.4132
 Red. masses --      9.3006                 8.9916                 8.9922
 Frc consts  --      6.4961                 6.3685                 6.3689
 IR Inten    --      0.0000                 0.0001                 0.0000

                     91                     92                     93
                     AG                     BU                     BU
 Frequencies --   1244.7936              1244.9699              1245.6653
 Red. masses --      1.5083                 1.5075                 1.5056
 Frc consts  --      1.3770                 1.3766                 1.3764
 IR Inten    --      0.0000              1295.8782                 1.9827

                     94                     95                     96
                     AG                     AG                     BU
 Frequencies --   1245.8098              1375.0189              1375.4312
 Red. masses --      1.5049                 1.3748                 1.3722
 Frc consts  --      1.3762                 1.5314                 1.5295
 IR Inten    --      0.0000                 0.0000              1859.0178

                     97                     98                     99
                     AG                     BU                     BU
 Frequencies --   1382.6555              1382.7062              1402.9451
 Red. masses --      1.6740                 1.6743                 1.3858
 Frc consts  --      1.8856                 1.8860                 1.6071
 IR Inten    --      0.0000                 0.8740                 0.0118

                    100                    101                    102
                     AG                     AG                     BU
 Frequencies --   1402.9874              1418.8301              1418.8427
 Red. masses --      1.3853                 1.5836                 1.5831
 Frc consts  --      1.6066                 1.8783                 1.8777
 IR Inten    --      0.0000                 0.0000                38.2937

                    103                    104                    105
                     AG                     BU                     BU
 Frequencies --   1425.5288              1425.5346              1454.7367
 Red. masses --      1.3126                 1.3127                 1.4937
 Frc consts  --      1.5716                 1.5717                 1.8625
 IR Inten    --      0.0000                29.5148                 0.0027

                    106                    107                    108
                     AG                     BU                     AG
 Frequencies --   1454.7455              1574.2180              1574.3375
 Red. masses --      1.4938                 3.2050                 3.2098
 Frc consts  --      1.8626                 4.6795                 4.6873
 IR Inten    --      0.0000                 0.0251                 0.0000

                    109                    110                    111
                     AG                     BU                     AG
 Frequencies --   1578.3942              1578.7496              1616.2941
 Red. masses --      3.0494                 3.0522                 3.4692
 Frc consts  --      4.4761                 4.4822                 5.3397
 IR Inten    --      0.0000              2309.0107                 0.0000

                    112                    113                    114
                     BU                     BU                     AG
 Frequencies --   1616.4312              1637.0127              1637.0162
 Red. masses --      3.4850                 2.7861                 2.7864
 Frc consts  --      5.3650                 4.3990                 4.3995
 IR Inten    --    742.9438                 0.0169                 0.0000

                    115                    116                    117
                     BU                     AG                     BU
 Frequencies --   1702.1314              1702.1343              1743.0331
 Red. masses --      3.5903                 3.5902                 4.9403
 Frc consts  --      6.1286                 6.1285                 8.8432
 IR Inten    --      0.0283                 0.0000               393.8706

                    118                    119                    120
                     AG                     AG                     BU
 Frequencies --   1743.2218              1809.0602              1809.3128
 Red. masses --      4.9417                 7.3914                 7.3931
 Frc consts  --      8.8477                14.2523                14.2595
 IR Inten    --      0.0000                 0.0000                 0.0384

                    121                    122                    123
                     BU                     AG                     AG
 Frequencies --   1821.0312              1822.3574              3197.5180
 Red. masses --      7.3534                 7.3474                 1.0785
 Frc consts  --     14.3673                14.3765                 6.4970
 IR Inten    --   4610.0438                 0.0000                 0.0000

                    124                    125                    126
                     BU                     AG                     BU
 Frequencies --   3197.6523              3199.2537              3199.3247
 Red. masses --      1.0784                 1.0784                 1.0787
 Frc consts  --      6.4964                 6.5034                 6.5053
 IR Inten    --   1683.7083                 0.0000              2319.2801

                    127                    128                    129
                     BU                     AG                     AG
 Frequencies --   3275.6119              3275.6628              3290.4909
 Red. masses --      1.0811                 1.0811                 1.0724
 Frc consts  --      6.8344                 6.8347                 6.8414
 IR Inten    --     17.2599                 0.0000                 0.0000

                    130                    131                    132
                     BU                     BU                     AG
 Frequencies --   3291.5557              3359.1538              3359.3140
 Red. masses --      1.0724                 1.0713                 1.0713
 Frc consts  --      6.8453                 7.1223                 7.1229
 IR Inten    --  12299.5455                 0.2267                 0.0000

                    133                    134                    135
                     BU                     AG                     AG
 Frequencies --   3412.6836              3413.2511              3884.9182
 Red. masses --      1.0703                 1.0703                 1.0654
 Frc consts  --      7.3445                 7.3467                 9.4738
 IR Inten    --   3022.3178                 0.0000                 0.0000

                    136                    137                    138
                     BU                     BU                     AG
 Frequencies --   3884.9306              3885.0378              3885.0515
 Red. masses --      1.0654                 1.0654                 1.0654
 Frc consts  --      9.4739                 9.4744                 9.4745
 IR Inten    --    416.2888                65.2984                 0.0000

 - Thermochemistry -
 -------------------
 Temperature   298.150 Kelvin.  Pressure   1.00000 Atm.
 Atom     1 has atomic number  6 and mass  12.00000

 Molecular mass:   496.00315 amu.
 Principal axes and moments of inertia in atomic units:
                           1         2         3
     Eigenvalues --  ******************************
           X            0.34869   0.93724   0.00000
           Y            0.93724  -0.34869   0.00000
           Z            0.00000   0.00000   1.00000
 This molecule is an asymmetric top.
 Rotational symmetry number  2.
 Warning -- assumption of classical behavior for rotation
           may cause significant error
 Rotational temperatures (Kelvin)      0.00349     0.00059     0.00050
 Rotational constants (GHZ):           0.07263     0.01229     0.01051
    5 imaginary frequencies ignored.
 Zero-point vibrational energy     881011.0 (Joules/Mol)
                                  210.56669 (Kcal/Mol)
 Warning -- explicit consideration of  45 degrees of freedom as
           vibrations may cause significant error
 Vibrational temperatures:      0.63    10.59    11.61    25.48    25.51
          (Kelvin)             52.93    52.96    77.81    77.83    80.90
                               80.90    96.96    96.96    98.43    98.43
                              118.72   118.73   172.88   172.88   187.17
                              187.18   191.88   191.89   216.29   216.30
                              252.57   252.63   257.12   257.12   278.83
                              278.85   312.17   312.18   372.99   373.00
                              374.76   375.08   842.21   842.29   844.79
                              844.87   844.99   845.06   845.09   845.22
                              907.29   907.31   935.08   935.13   935.32
                              935.35   954.34   954.50   974.77   974.78
                              994.13   994.29  1161.24  1161.24  1161.32
                             1161.34  1167.16  1167.16  1171.40  1171.45
                             1255.65  1255.65  1318.11  1318.16  1341.56
                             1341.56  1346.31  1346.31  1414.96  1414.97
                             1441.70  1442.30  1525.62  1525.62  1525.69
                             1525.69  1566.53  1566.54  1577.49  1577.49
                             1790.98  1791.23  1792.23  1792.44  1978.34
                             1978.94  1989.33  1989.40  2018.52  2018.58
                             2041.38  2041.40  2051.02  2051.02  2093.04
                             2093.05  2264.95  2265.12  2270.95  2271.47
                             2325.48  2325.68  2355.29  2355.30  2448.98
                             2448.99  2507.83  2508.10  2602.83  2603.19
                             2620.05  2621.96  4600.51  4600.70  4603.01
                             4603.11  4712.87  4712.94  4734.28  4735.81
                             4833.07  4833.30  4910.08  4910.90  5589.52
                             5589.54  5589.70  5589.72

 Zero-point correction=                           0.335559 (Hartree/Particle)
 Thermal correction to Energy=                    0.369086
 Thermal correction to Enthalpy=                  0.370030
 Thermal correction to Gibbs Free Energy=         0.254379
 Sum of electronic and zero-point Energies=          -2119.364729
 Sum of electronic and thermal Energies=             -2119.331202
 Sum of electronic and thermal Enthalpies=           -2119.330258
 Sum of electronic and thermal Free Energies=        -2119.445909

                     E (Thermal)             CV                S
                      KCal/Mol        Cal/Mol-Kelvin    Cal/Mol-Kelvin
 Total                  231.605            111.548            243.408
 Electronic               0.000              0.000              0.000
 Translational            0.889              2.981             44.492
 Rotational               0.889              2.981             40.278
 Vibrational            229.828            105.587            158.638
 Vibration     1          0.592              1.987             14.222
 Vibration     2          0.593              1.987              8.621
 Vibration     3          0.593              1.987              8.437
 Vibration     4          0.593              1.986              6.876
 Vibration     5          0.593              1.986              6.873
 Vibration     6          0.594              1.982              5.425
 Vibration     7          0.594              1.982              5.424
 Vibration     8          0.596              1.976              4.662
 Vibration     9          0.596              1.976              4.662
 Vibration    10          0.596              1.975              4.585
 Vibration    11          0.596              1.975              4.585
 Vibration    12          0.598              1.970              4.228
 Vibration    13          0.598              1.970              4.228
 Vibration    14          0.598              1.969              4.199
 Vibration    15          0.598              1.969              4.199
 Vibration    16          0.600              1.961              3.830
 Vibration    17          0.600              1.961              3.830
 Vibration    18          0.609              1.932              3.098
 Vibration    19          0.609              1.932              3.098
 Vibration    20          0.612              1.923              2.945
 Vibration    21          0.612              1.923              2.945
 Vibration    22          0.613              1.920              2.897
 Vibration    23          0.613              1.920              2.897
 Vibration    24          0.618              1.902              2.668
 Vibration    25          0.618              1.902              2.668
 Vibration    26          0.628              1.873              2.375
 Vibration    27          0.628              1.872              2.375
 Vibration    28          0.629              1.868              2.342
 Vibration    29          0.629              1.868              2.342
 Vibration    30          0.635              1.848              2.191
 Vibration    31          0.635              1.848              2.191
 Vibration    32          0.646              1.815              1.984
 Vibration    33          0.646              1.815              1.984
 Vibration    34          0.668              1.747              1.667
 Vibration    35          0.668              1.747              1.667
 Vibration    36          0.669              1.745              1.659
 Vibration    37          0.669              1.745              1.657
 Vibration    38          0.942              1.063              0.476
 Vibration    39          0.942              1.063              0.475
 Vibration    40          0.944              1.059              0.472
 Vibration    41          0.944              1.059              0.472
 Vibration    42          0.944              1.059              0.472
 Vibration    43          0.944              1.059              0.472
 Vibration    44          0.945              1.059              0.472
 Vibration    45          0.945              1.059              0.472

 Normal termination of Gaussian 09 at Fri Jun 21 17:54:53 2019.
